units               real
dimension           3
# processors          2 2 16
# processors          2 2 8
#processors          4 8 2
processors          * * 2

### only two periodic boundaries
boundary            p p f
atom_style          full
newton              on

##force field
pair_style          lj/cut/coul/long 12 12
angle_style         harmonic
bond_style          harmonic
dihedral_style      opls
improper_style      cvff
kspace_style        pppm/conp 1.0e-5
kspace_modify       slab 3.0
pair_modify         mix geometric  ## should be default anyway
#kspace_style        pppm 1.0e-4
##atom definition

if "${if_restart} == 0" then     "read_data         sample.data"
read_data         sample.data
Reading data file ...
  orthogonal box = (0.0000000 0.0000000 0.0000000) to (35.000000 35.000000 244.86667)
  4 by 4 by 2 MPI processor grid
  reading atoms ...
  23702 atoms
  scanning bonds ...
  4 = max bonds/atom
  scanning angles ...
  6 = max angles/atom
  scanning dihedrals ...
  11 = max dihedrals/atom
  scanning impropers ...
  2 = max impropers/atom
  reading bonds ...
  14367 bonds
  reading angles ...
  23642 angles
  reading dihedrals ...
  22135 dihedrals
  reading impropers ...
  1495 impropers
Finding 1-2 1-3 1-4 neighbors ...
  special bond factors lj:    0        0        0       
  special bond factors coul:  0        0        0       
     4 = max # of 1-2 neighbors
     7 = max # of 1-3 neighbors
    14 = max # of 1-4 neighbors
    15 = max # of special neighbors
  special bonds CPU = 0.004 seconds
  read_data CPU = 0.206 seconds

if "${if_restart} == 1" then     "read_restart         restart.*"

special_bonds lj/coul 0.0 0.0 0.5 ## for opls lopes kpl
Finding 1-2 1-3 1-4 neighbors ...
  special bond factors lj:    0        0        0.5     
  special bond factors coul:  0        0        0.5     
     4 = max # of 1-2 neighbors
     7 = max # of 1-3 neighbors
    14 = max # of 1-4 neighbors
    15 = max # of special neighbors
  special bonds CPU = 0.001 seconds

##setting
# neighbor            2 bin

variable etype equal 1
group cdc type 1
8136 atoms in group cdc
group sol subtract all cdc
15566 atoms in group sol

group allatom union cdc sol
23702 atoms in group allatom

group leftele molecule 3
3620 atoms in group leftele
group rightele molecule 1
3620 atoms in group rightele

variable q atom q
compute qleft leftele reduce sum v_q
compute qright rightele reduce sum v_q
compute tempsl sol temp


##outputs
thermo              100
neigh_modify every 2 delay 0 check yes
thermo_style custom step c_tempsl c_qleft c_qright # f_e
thermo_modify flush yes
#thermo_modify warn 5

if "${if_restart} == 0" then "shell echo 0 > nrestart"
shell echo 0 > nrestart

variable nr file nrestart
dump 7 all xtc 1000 conp_${nr}.xtc
dump 7 all xtc 1000 conp_0.xtc
dump_modify 7 sort id
shell echo $(v_nr+1) > nrestart # increment for next run
shell echo 1 > nrestart 

dump 8 ele custom 1000 ele.lammpstrj id q
ERROR: Could not find dump group ID (src/output.cpp:540)
Last command: dump 8 ele custom 1000 ele.lammpstrj id q
