LAMMPS (27 May 2021)
OMP_NUM_THREADS environment is not set. Defaulting to 1 thread. (src/comm.cpp:98)
  using 1 OpenMP thread(s) per MPI task
Reading data file ...
  orthogonal box = (0.0000000 0.0000000 0.0000000) to (35.000000 35.000000 244.86667)
  8 by 4 by 2 MPI processor grid
  reading atoms ...
  22088 atoms
  scanning bonds ...
  4 = max bonds/atom
  scanning angles ...
  6 = max angles/atom
  scanning dihedrals ...
  6 = max dihedrals/atom
  reading bonds ...
  11900 bonds
  reading angles ...
  18874 angles
  reading dihedrals ...
  13536 dihedrals
Finding 1-2 1-3 1-4 neighbors ...
  special bond factors lj:    0        0        0       
  special bond factors coul:  0        0        0       
     4 = max # of 1-2 neighbors
     6 = max # of 1-3 neighbors
    12 = max # of 1-4 neighbors
    14 = max # of special neighbors
  special bonds CPU = 0.004 seconds
  read_data CPU = 0.385 seconds
Finding 1-2 1-3 1-4 neighbors ...
  special bond factors lj:    0        0        0.5     
  special bond factors coul:  0        0        0.5     
     4 = max # of 1-2 neighbors
     6 = max # of 1-3 neighbors
    12 = max # of 1-4 neighbors
    14 = max # of special neighbors
  special bonds CPU = 0.002 seconds
8136 atoms in group cdc
13952 atoms in group sol
22088 atoms in group allatom
3620 atoms in group leftele
3620 atoms in group rightele
7240 atoms in group ele
Finding SHAKE clusters ...
       0 = # of size 2 clusters
       0 = # of size 3 clusters
    1232 = # of size 4 clusters
       0 = # of frozen angles
  find clusters CPU = 0.002 seconds
New timer settings: style=normal  mode=nosync  timeout=00:30:00
PPPM initialization ...
  using 12-bit tables for long-range coulomb (src/kspace.cpp:340)
  G vector (1/distance) = 0.22848649
  grid = 20 20 216
  stencil order = 5
  estimated absolute RMS force accuracy = 0.0036023621
  estimated relative force accuracy = 1.0848406e-05
  using double precision FFTW3
  3d grid and FFT values/proc = 19656 2700
Neighbor list info ...
  update every 2 steps, delay 0 steps, check yes
  max neighbors/atom: 2000, page size: 100000
  master list distance cutoff = 14
  ghost atom cutoff = 14
  binsize = 7, bins = 5 5 35
  1 neighbor lists, perpetual/occasional/extra = 1 0 0
  (1) pair lj/cut/coul/long, perpetual
      attributes: half, newton on
      pair build: half/bin/newton
      stencil: half/bin/3d
      bin: standard
Setting up Verlet run ...
  Unit style    : real
  Current step  : 0
  Time step     : 2
  Walltime left : 0:29:59.98
WARNING: Inconsistent image flags (src/domain.cpp:813)
Per MPI rank memory allocation (min/avg/max) = 13.94 | 15.31 | 15.78 Mbytes
Step c_tempsl c_qleft c_qright 
       0            0            0            0 
     100    212.92938            0            0 
     200    219.10168            0            0 
     300    244.43422            0            0 
     400    276.06387            0            0 
     500    286.21079            0            0 
     600    338.39261            0            0 
     700    348.08151            0            0 
     800    388.37997            0            0 
     900    393.07108            0            0 
    1000    418.25873            0            0 
    1100    406.46512            0            0 
    1200    401.08277            0            0 
    1300    392.45863            0            0 
    1400    387.93904            0            0 
    1500     403.4026            0            0 
    1600    405.99825            0            0 
    1700    409.66467            0            0 
    1800      402.722            0            0 
    1900    399.19943            0            0 
    2000    387.12335            0            0 
    2100    396.48539            0            0 
    2200    404.71318            0            0 
    2300    406.06745            0            0 
    2400    404.49948            0            0 
    2500    394.36758            0            0 
    2600    394.70817            0            0 
    2700    398.80689            0            0 
    2800    406.48753            0            0 
    2900    404.69903            0            0 
    3000    402.26993            0            0 
    3100    392.31594            0            0 
    3200    398.32994            0            0 
    3300    399.47549            0            0 
    3400    406.39684            0            0 
    3500    406.03766            0            0 
    3600    397.58055            0            0 
    3700    397.00754            0            0 
    3800    397.84816            0            0 
    3900    400.41726            0            0 
    4000    402.70715            0            0 
    4100    402.81572            0            0 
    4200    401.04435            0            0 
    4300     398.4878            0            0 
    4400    397.21831            0            0 
    4500    401.32273            0            0 
    4600    398.11117            0            0 
    4700    400.21288            0            0 
    4800    396.51086            0            0 
    4900     398.0759            0            0 
    5000    402.91182            0            0 
