LAMMPS (27 May 2021)
OMP_NUM_THREADS environment is not set. Defaulting to 1 thread. (src/comm.cpp:98)
  using 1 OpenMP thread(s) per MPI task
Reading data file ...
  orthogonal box = (0.0000000 0.0000000 0.0000000) to (35.000000 35.000000 244.86667)
  8 by 4 by 2 MPI processor grid
  reading atoms ...
  22088 atoms
  scanning bonds ...
  4 = max bonds/atom
  scanning angles ...
  6 = max angles/atom
  scanning dihedrals ...
  6 = max dihedrals/atom
  reading bonds ...
  11900 bonds
  reading angles ...
  18874 angles
  reading dihedrals ...
  13536 dihedrals
Finding 1-2 1-3 1-4 neighbors ...
  special bond factors lj:    0        0        0       
  special bond factors coul:  0        0        0       
     4 = max # of 1-2 neighbors
     6 = max # of 1-3 neighbors
    12 = max # of 1-4 neighbors
    14 = max # of special neighbors
  special bonds CPU = 0.004 seconds
  read_data CPU = 0.100 seconds
Finding 1-2 1-3 1-4 neighbors ...
  special bond factors lj:    0        0        0.5     
  special bond factors coul:  0        0        0.5     
     4 = max # of 1-2 neighbors
     6 = max # of 1-3 neighbors
    12 = max # of 1-4 neighbors
    14 = max # of special neighbors
  special bonds CPU = 0.005 seconds
8136 atoms in group cdc
13952 atoms in group sol
22088 atoms in group allatom
3620 atoms in group leftele
3620 atoms in group rightele
7240 atoms in group ele
Finding SHAKE clusters ...
       0 = # of size 2 clusters
       0 = # of size 3 clusters
    1232 = # of size 4 clusters
       0 = # of frozen angles
  find clusters CPU = 0.002 seconds
New timer settings: style=normal  mode=nosync  timeout=00:30:00
PPPM initialization ...
  using 12-bit tables for long-range coulomb (src/kspace.cpp:340)
  G vector (1/distance) = 0.22848649
  grid = 20 20 216
  stencil order = 5
  estimated absolute RMS force accuracy = 0.0036023621
  estimated relative force accuracy = 1.0848406e-05
  using double precision FFTW3
  3d grid and FFT values/proc = 19656 2700
Neighbor list info ...
  update every 2 steps, delay 0 steps, check yes
  max neighbors/atom: 2000, page size: 100000
  master list distance cutoff = 14
  ghost atom cutoff = 14
  binsize = 7, bins = 5 5 35
  1 neighbor lists, perpetual/occasional/extra = 1 0 0
  (1) pair lj/cut/coul/long, perpetual
      attributes: half, newton on
      pair build: half/bin/newton
      stencil: half/bin/3d
      bin: standard
Setting up Verlet run ...
  Unit style    : real
  Current step  : 0
  Time step     : 2
  Walltime left : 0:29:59.97
WARNING: Inconsistent image flags (src/domain.cpp:813)
Per MPI rank memory allocation (min/avg/max) = 13.94 | 15.31 | 15.78 Mbytes
Step c_tempsl c_qleft c_qright 
       0            0            0            0 
     100    212.92938            0            0 
     200    219.10168            0            0 
     300    244.43422            0            0 
     400    276.06387            0            0 
     500    286.21079            0            0 
     600    338.39261            0            0 
     700    348.08151            0            0 
     800    388.37997            0            0 
     900    393.07108            0            0 
    1000    418.25873            0            0 
    1100    406.46512            0            0 
    1200    401.08277            0            0 
    1300    392.45863            0            0 
    1400    387.93904            0            0 
    1500     403.4026            0            0 
    1600    405.99825            0            0 
    1700    409.66467            0            0 
    1800      402.722            0            0 
    1900    399.19943            0            0 
    2000    387.12335            0            0 
    2100    396.48539            0            0 
    2200    404.71318            0            0 
    2300    406.06745            0            0 
    2400    404.49948            0            0 
    2500    394.36758            0            0 
    2600    394.70817            0            0 
    2700    398.80689            0            0 
    2800    406.48753            0            0 
    2900    404.69903            0            0 
    3000    402.26993            0            0 
    3100    392.31594            0            0 
    3200    398.32994            0            0 
    3300    399.47549            0            0 
    3400    406.39684            0            0 
    3500    406.03766            0            0 
    3600    397.58055            0            0 
    3700    397.00754            0            0 
    3800    397.84816            0            0 
    3900    400.41726            0            0 
    4000    402.70715            0            0 
    4100    402.81572            0            0 
    4200    401.04435            0            0 
    4300     398.4878            0            0 
    4400    397.21831            0            0 
    4500    401.32273            0            0 
    4600    398.11117            0            0 
    4700    400.21288            0            0 
    4800    396.51086            0            0 
    4900     398.0759            0            0 
    5000    402.91182            0            0 
Loop time of 39.4975 on 64 procs for 5000 steps with 22088 atoms

Performance: 21.875 ns/day, 1.097 hours/ns, 126.590 timesteps/s
99.9% CPU use with 64 MPI tasks x 1 OpenMP threads

MPI task timing breakdown:
Section |  min time  |  avg time  |  max time  |%varavg| %total
---------------------------------------------------------------
Pair    | 14.602     | 16.651     | 18.419     |  21.1 | 42.16
Bond    | 0.27822    | 0.40143    | 0.51935    |   8.5 |  1.02
Kspace  | 10.204     | 11.889     | 13.961     |  25.1 | 30.10
Neigh   | 2.4848     | 2.5339     | 2.5792     |   1.3 |  6.42
Comm    | 3.897      | 4.0968     | 4.2949     |   4.9 | 10.37
Output  | 0.17373    | 0.1741     | 0.19532    |   0.6 |  0.44
Modify  | 3.1676     | 3.2801     | 3.3858     |   4.3 |  8.30
Other   |            | 0.4718     |            |       |  1.19

Nlocal:        345.125 ave         377 max         299 min
Histogram: 1 0 2 9 9 10 13 15 1 4
Nghost:        11464.5 ave       11567 max       11364 min
Histogram: 1 5 4 10 17 3 11 9 3 1
Neighs:        142440.0 ave      160567 max      124632 min
Histogram: 3 3 7 10 7 13 8 6 5 2

Total # of neighbors = 9116131
Ave neighs/atom = 412.71872
Ave special neighs/atom = 4.0121333
Neighbor list builds = 438
Dangerous builds = 0
PPPM initialization ...
  using 12-bit tables for long-range coulomb (src/kspace.cpp:340)
  G vector (1/distance) = 0.22848649
  grid = 20 20 216
  stencil order = 5
  estimated absolute RMS force accuracy = 0.0036023621
  estimated relative force accuracy = 1.0848406e-05
  using double precision FFTW3
  3d grid and FFT values/proc = 19656 2700
Neighbor list info ...
  update every 2 steps, delay 0 steps, check yes
  max neighbors/atom: 2000, page size: 100000
  master list distance cutoff = 14
  ghost atom cutoff = 14
  binsize = 7, bins = 5 5 35
  3 neighbor lists, perpetual/occasional/extra = 2 1 0
  (1) pair lj/cut/coul/long, perpetual
      attributes: half, newton on
      pair build: half/bin/newton
      stencil: half/bin/3d
      bin: standard
  (2) fix conp, occasional, skip from (1)
      attributes: half, newton on
      pair build: skip
      stencil: none
      bin: none
  (3) fix conp, perpetual, skip from (1)
      attributes: half, newton on
      pair build: skip
      stencil: none
      bin: none
Setting up Verlet run ...
  Unit style    : real
  Current step  : 5000
  Time step     : 2
  Walltime left : 0:29:20.25
WARNING: Inconsistent image flags (src/domain.cpp:813)
Fix conp is now calculating A matrix ...  ... done!
conp output: <e,e> = 0.20333957
conp output: <d,d> = 0.053573272
Per MPI rank memory allocation (min/avg/max) = 15.46 | 16.83 | 17.30 Mbytes
Step c_tempsl c_qleft c_qright 
    5000    402.91182  0.021189259 -0.021189259 
    5100    402.22972  0.053987938 -0.053987938 
    5200    396.68574  0.096362829 -0.096362829 
    5300    404.38337  0.084851779 -0.084851779 
    5400    403.45018   0.08184111  -0.08184111 
    5500    398.13725   0.10975626  -0.10975626 
    5600    400.68196  0.081949645 -0.081949645 
    5700    399.48694   0.10861533  -0.10861533 
    5800    399.54467   0.13797317  -0.13797317 
    5900    405.12564   0.13897469  -0.13897469 
    6000    402.23614   0.10506372  -0.10506372 
    6100    400.79503  0.093410363 -0.093410363 
    6200    400.95313  0.085600489 -0.085600489 
    6300    400.85279  0.086500852 -0.086500852 
    6400    400.99641   0.15198419  -0.15198419 
    6500    398.39168   0.08219607  -0.08219607 
    6600    402.19269  0.042258502 -0.042258502 
    6700    401.27672  0.051548266 -0.051548266 
    6800    401.04903 -0.0068591001 0.0068591001 
    6900    398.10348 -0.030383315  0.030383315 
    7000    393.61414 -0.039157344  0.039157344 
    7100    398.99136 -0.018460496  0.018460496 
    7200    404.59093  0.054562517 -0.054562517 
    7300    405.94865  0.047674748 -0.047674748 
    7400    395.60056   0.14324681  -0.14324681 
    7500    397.14417   0.12816338  -0.12816338 
    7600    397.31809  0.045930943 -0.045930943 
    7700     399.7281  0.039803539 -0.039803539 
    7800    402.31659  0.015745569 -0.015745569 
    7900    406.47242   0.07625956  -0.07625956 
    8000    404.65754  0.052123782 -0.052123782 
Loop time of 58.218 on 64 procs for 3000 steps with 22088 atoms

Performance: 8.904 ns/day, 2.695 hours/ns, 51.530 timesteps/s
100.0% CPU use with 64 MPI tasks x 1 OpenMP threads

MPI task timing breakdown:
Section |  min time  |  avg time  |  max time  |%varavg| %total
---------------------------------------------------------------
Pair    | 9.4026     | 10.996     | 12.105     |  19.0 | 18.89
Bond    | 0.18554    | 0.24933    | 0.31871    |   6.4 |  0.43
Kspace  | 6.3218     | 7.3617     | 8.9385     |  23.1 | 12.65
Neigh   | 1.6104     | 1.6389     | 1.6676     |   1.2 |  2.82
Comm    | 2.3636     | 2.5013     | 2.623      |   3.8 |  4.30
Output  | 0.10517    | 0.10535    | 0.1153     |   0.4 |  0.18
Modify  | 34.73      | 35.014     | 35.219     |   1.8 | 60.14
Other   |            | 0.3512     |            |       |  0.60

Nlocal:        345.125 ave         379 max         310 min
Histogram: 6 2 7 6 10 9 8 7 5 4
Nghost:        11478.8 ave       11600 max       11353 min
Histogram: 7 5 8 5 7 2 8 9 7 6
Neighs:        142371.0 ave      161161 max      124327 min
Histogram: 3 9 3 7 12 9 6 7 7 1

Total # of neighbors = 9111747
Ave neighs/atom = 412.52024
Ave special neighs/atom = 4.0121333
Neighbor list builds = 268
Dangerous builds = 0
PPPM initialization ...
  using 12-bit tables for long-range coulomb (src/kspace.cpp:340)
  G vector (1/distance) = 0.22848649
  grid = 20 20 216
  stencil order = 5
  estimated absolute RMS force accuracy = 0.0036026731
  estimated relative force accuracy = 1.0849343e-05
  using double precision FFTW3
  3d grid and FFT values/proc = 19656 2700
Neighbor list info ...
  update every 2 steps, delay 0 steps, check yes
  max neighbors/atom: 2000, page size: 100000
  master list distance cutoff = 14
  ghost atom cutoff = 14
  binsize = 7, bins = 5 5 35
  3 neighbor lists, perpetual/occasional/extra = 2 1 0
  (1) pair lj/cut/coul/long, perpetual
      attributes: half, newton on
      pair build: half/bin/newton
      stencil: half/bin/3d
      bin: standard
  (2) fix conp, occasional, skip from (1)
      attributes: half, newton on
      pair build: skip
      stencil: none
      bin: none
  (3) fix conp, perpetual, skip from (1)
      attributes: half, newton on
      pair build: skip
      stencil: none
      bin: none
Setting up Verlet run ...
  Unit style    : real
  Current step  : 8000
  Time step     : 2
  Walltime left : 0:25:23.93
WARNING: Inconsistent image flags (src/domain.cpp:813)
Fix conp is now calculating A matrix ...  ... done!
conp output: <e,e> = 0.20333957
conp output: <d,d> = 0.053573272
Per MPI rank memory allocation (min/avg/max) = 15.46 | 16.83 | 17.48 Mbytes
Step c_tempsl c_qleft c_qright 
    8000    404.65754 -0.055022763  0.055022763 
    8100    400.14689  -0.19991137   0.19991137 
    8200    398.19142   -0.2783505    0.2783505 
    8300    395.04187  -0.24995674   0.24995674 
    8400    400.49574    -0.286483     0.286483 
    8500     400.9838  -0.29501068   0.29501068 
    8600    401.31454  -0.34520339   0.34520339 
    8700    398.43732  -0.36480749   0.36480749 
    8800    395.58917   -0.4208328    0.4208328 
    8900    399.35346  -0.52018361   0.52018361 
    9000    400.96421  -0.56160684   0.56160684 
    9100    404.01983  -0.61807507   0.61807507 
    9200     399.3879   -0.5525352    0.5525352 
    9300    401.19593  -0.48872358   0.48872358 
    9400    402.44336  -0.47258953   0.47258953 
    9500    400.97193  -0.52070089   0.52070089 
    9600    397.78779  -0.55262123   0.55262123 
    9700    401.79609  -0.57518767   0.57518767 
    9800    398.10953  -0.58561772   0.58561772 
    9900    402.19105  -0.49469266   0.49469266 
   10000    400.77284  -0.50107239   0.50107239 
   10100    394.68983  -0.57496076   0.57496076 
   10200    397.33711  -0.56353871   0.56353871 
   10300    395.77137  -0.59082187   0.59082187 
   10400    401.31161  -0.56529082   0.56529082 
   10500     404.4696  -0.54440312   0.54440312 
   10600    400.70502   -0.6507565    0.6507565 
   10700    400.20143   -0.7141916    0.7141916 
   10800    393.63055   -0.7334624    0.7334624 
   10900    398.08091  -0.67765895   0.67765895 
   11000    401.68549  -0.56657816   0.56657816 
   11100    403.90659   -0.5888779    0.5888779 
   11200    399.71456  -0.65322226   0.65322226 
   11300    402.80184  -0.66179427   0.66179427 
   11400    399.09655  -0.62421503   0.62421503 
   11500    396.68335  -0.65554971   0.65554971 
   11600    402.14469  -0.64073889   0.64073889 
   11700    403.34199  -0.69123492   0.69123492 
   11800    403.40873  -0.69905013   0.69905013 
   11900    399.18652  -0.64652871   0.64652871 
   12000    399.56656   -0.6819653    0.6819653 
Loop time of 77.8563 on 64 procs for 4000 steps with 22088 atoms

Performance: 8.878 ns/day, 2.703 hours/ns, 51.377 timesteps/s
100.0% CPU use with 64 MPI tasks x 1 OpenMP threads

MPI task timing breakdown:
Section |  min time  |  avg time  |  max time  |%varavg| %total
---------------------------------------------------------------
Pair    | 12.577     | 14.658     | 16.261     |  22.7 | 18.83
Bond    | 0.25098    | 0.33289    | 0.44117    |   7.5 |  0.43
Kspace  | 8.1521     | 9.9795     | 12.11      |  27.8 | 12.82
Neigh   | 2.1543     | 2.1897     | 2.2252     |   1.3 |  2.81
Comm    | 3.1709     | 3.348      | 3.5047     |   4.3 |  4.30
Output  | 0.13975    | 0.14006    | 0.15758    |   0.6 |  0.18
Modify  | 46.319     | 46.733     | 47.005     |   2.2 | 60.02
Other   |            | 0.4752     |            |       |  0.61

Nlocal:        345.125 ave         379 max         305 min
Histogram: 1 3 10 7 9 9 8 5 6 6
Nghost:        11486.9 ave       11576 max       11389 min
Histogram: 3 1 4 8 10 14 13 5 4 2
Neighs:        142459.0 ave      161489 max      123554 min
Histogram: 4 5 5 5 17 6 7 7 5 3

Total # of neighbors = 9117362
Ave neighs/atom = 412.77445
Ave special neighs/atom = 4.0121333
Neighbor list builds = 359
Dangerous builds = 0
System init for write_restart ...
PPPM initialization ...
  using 12-bit tables for long-range coulomb (src/kspace.cpp:340)
  G vector (1/distance) = 0.22848649
  grid = 20 20 216
  stencil order = 5
  estimated absolute RMS force accuracy = 0.0036026531
  estimated relative force accuracy = 1.0849283e-05
  using double precision FFTW3
  3d grid and FFT values/proc = 19656 2700
Neighbor list info ...
  update every 2 steps, delay 0 steps, check yes
  max neighbors/atom: 2000, page size: 100000
  master list distance cutoff = 14
  ghost atom cutoff = 14
  binsize = 7, bins = 5 5 35
  1 neighbor lists, perpetual/occasional/extra = 1 0 0
  (1) pair lj/cut/coul/long, perpetual
      attributes: half, newton on
      pair build: half/bin/newton
      stencil: half/bin/3d
      bin: standard
Total wall time: 0:08:51
[CRAYBLAS_WARNING] Application linked against multiple cray-libsci libraries
[CRAYBLAS_WARNING] Application linked against multiple cray-libsci libraries
[CRAYBLAS_WARNING] Application linked against multiple cray-libsci libraries
[CRAYBLAS_WARNING] Application linked against multiple cray-libsci libraries
[CRAYBLAS_WARNING] Application linked against multiple cray-libsci libraries
[CRAYBLAS_WARNING] Application linked against multiple cray-libsci libraries
[CRAYBLAS_WARNING] Application linked against multiple cray-libsci libraries
[CRAYBLAS_WARNING] Application linked against multiple cray-libsci libraries
[CRAYBLAS_WARNING] Application linked against multiple cray-libsci libraries
[CRAYBLAS_WARNING] Application linked against multiple cray-libsci libraries
[CRAYBLAS_WARNING] Application linked against multiple cray-libsci libraries
[CRAYBLAS_WARNING] Application linked against multiple cray-libsci libraries
[CRAYBLAS_WARNING] Application linked against multiple cray-libsci libraries
[CRAYBLAS_WARNING] Application linked against multiple cray-libsci libraries
[CRAYBLAS_WARNING] Application linked against multiple cray-libsci libraries
[CRAYBLAS_WARNING] Application linked against multiple cray-libsci libraries
[CRAYBLAS_WARNING] Application linked against multiple cray-libsci libraries
[CRAYBLAS_WARNING] Application linked against multiple cray-libsci libraries
[CRAYBLAS_WARNING] Application linked against multiple cray-libsci libraries
[CRAYBLAS_WARNING] Application linked against multiple cray-libsci libraries
[CRAYBLAS_WARNING] Application linked against multiple cray-libsci libraries
[CRAYBLAS_WARNING] Application linked against multiple cray-libsci libraries
[CRAYBLAS_WARNING] Application linked against multiple cray-libsci libraries
[CRAYBLAS_WARNING] Application linked against multiple cray-libsci libraries
[CRAYBLAS_WARNING] Application linked against multiple cray-libsci libraries
[CRAYBLAS_WARNING] Application linked against multiple cray-libsci libraries
[CRAYBLAS_WARNING] Application linked against multiple cray-libsci libraries
[CRAYBLAS_WARNING] Application linked against multiple cray-libsci libraries
[CRAYBLAS_WARNING] Application linked against multiple cray-libsci libraries
[CRAYBLAS_WARNING] Application linked against multiple cray-libsci libraries
[CRAYBLAS_WARNING] Application linked against multiple cray-libsci libraries
[CRAYBLAS_WARNING] Application linked against multiple cray-libsci libraries
[CRAYBLAS_WARNING] Application linked against multiple cray-libsci libraries
[CRAYBLAS_WARNING] Application linked against multiple cray-libsci libraries
[CRAYBLAS_WARNING] Application linked against multiple cray-libsci libraries
[CRAYBLAS_WARNING] Application linked against multiple cray-libsci libraries
[CRAYBLAS_WARNING] Application linked against multiple cray-libsci libraries
[CRAYBLAS_WARNING] Application linked against multiple cray-libsci libraries
[CRAYBLAS_WARNING] Application linked against multiple cray-libsci libraries
[CRAYBLAS_WARNING] Application linked against multiple cray-libsci libraries
[CRAYBLAS_WARNING] Application linked against multiple cray-libsci libraries
[CRAYBLAS_WARNING] Application linked against multiple cray-libsci libraries
[CRAYBLAS_WARNING] Application linked against multiple cray-libsci libraries
[CRAYBLAS_WARNING] Application linked against multiple cray-libsci libraries
[CRAYBLAS_WARNING] Application linked against multiple cray-libsci libraries
[CRAYBLAS_WARNING] Application linked against multiple cray-libsci libraries
[CRAYBLAS_WARNING] Application linked against multiple cray-libsci libraries
[CRAYBLAS_WARNING] Application linked against multiple cray-libsci libraries
[CRAYBLAS_WARNING] Application linked against multiple cray-libsci libraries
[CRAYBLAS_WARNING] Application linked against multiple cray-libsci libraries
[CRAYBLAS_WARNING] Application linked against multiple cray-libsci libraries
[CRAYBLAS_WARNING] Application linked against multiple cray-libsci libraries
[CRAYBLAS_WARNING] Application linked against multiple cray-libsci libraries
[CRAYBLAS_WARNING] Application linked against multiple cray-libsci libraries
[CRAYBLAS_WARNING] Application linked against multiple cray-libsci libraries
[CRAYBLAS_WARNING] Application linked against multiple cray-libsci libraries
[CRAYBLAS_WARNING] Application linked against multiple cray-libsci libraries
[CRAYBLAS_WARNING] Application linked against multiple cray-libsci libraries
[CRAYBLAS_WARNING] Application linked against multiple cray-libsci libraries
[CRAYBLAS_WARNING] Application linked against multiple cray-libsci libraries
[CRAYBLAS_WARNING] Application linked against multiple cray-libsci libraries
[CRAYBLAS_WARNING] Application linked against multiple cray-libsci libraries
[CRAYBLAS_WARNING] Application linked against multiple cray-libsci libraries
[CRAYBLAS_WARNING] Application linked against multiple cray-libsci libraries
acn_litfsi
2c6cb5dbea9a3238353470cdd9d30081
if_restart is  0
